24
MMFF-Energy = 35.02797341045492
C	1.1442426024637906	2.150592912906368	0.7555918137071749
C	0.2087137376479799	2.8342730558435134	-0.013069036371285408
C	-0.20526721671642892	2.3338426005681168	-1.2408935537054353
C	1.6697498380412632	0.9441520636394577	0.2865261708250655
C	1.2596911343451689	0.4203336129189033	-0.9486393616549347
C	0.320757361738284	1.1300142847022725	-1.7111365044140376
O	-0.33067681597391085	4.013888968874156	0.4058772096198156
H	0.07608390526089388	4.259384584599299	1.2528411270233715
H	-0.004817826073480665	0.7560220604665104	-2.6795639686050636
H	2.406200128732331	0.419844689723442	0.8918163235231483
H	1.4766326012756954	2.5387399514546383	1.7132515417630398
H	-0.9318194338358557	2.882848695017474	-1.8335762891846552
C	1.8157696081659196	-0.8936828838974878	-1.4482873755171726
C	0.778431012561345	-2.0278791737870225	-1.4590854959829014
H	2.6839365233205803	-1.187153256244864	-0.8426511474719631
H	2.2104524975072444	-0.7354798784631779	-2.4608403724968744
C	1.4217658294936713	-3.3188372091103773	-1.9891870887076697
O	2.1863529349062394	-3.394958051015528	-2.9369442372721086
O	1.0103845543576433	-4.398089830450046	-1.271032955767657
H	0.40613015242437106	-4.038108418374453	-0.5722968798149897
N	0.20577199443704175	-2.3166579751066267	-0.10200686817838736
H	-0.05837666314475745	-1.7968608325871347	-2.128363997966209
H	0.9622376569757992	-2.2206574233306298	0.5845867280137513
H	-0.41548714641188694	-1.5311437673465094	0.12715707003557025
