24
MMFF-Energy = 35.02797338006677
C	0.5141103306301176	1.340767505110789	1.5688031006523808
C	0.7327374538646358	2.5682779897495776	0.9532663042571012
C	1.3402364669876425	2.6403935101129874	-0.293773201994557
C	0.9078885166733178	0.16719196723531268	0.9212435750709304
C	1.518018812963802	0.21981927103286192	-0.3409544698707098
C	1.7358392738909183	1.4688247905168523	-0.9402695824015331
O	0.36403017581216035	3.737974996929882	1.5480900624382783
H	-0.007935188013867611	3.539242224766478	2.422855639338042
H	2.22031242047637	1.541661051581951	-1.9117096855012008
H	0.7388317784382609	-0.7880873063244977	1.4136849205070536
H	0.045280307961620817	1.2773375716762247	2.5457514469433735
H	1.510820377601259	3.607271267571138	-0.7591910227476887
C	1.9286902935774182	-1.0511908466512005	-1.04904681377937
C	1.07718158447356	-1.3570409873522722	-2.2916171558188134
H	1.888532731582851	-1.8982792602257688	-0.35086438136424203
H	2.986095522171317	-0.9595630567499124	-1.3311183589690219
C	1.5674147849494262	-2.65399838617676	-2.9542140080564336
O	2.7339506447771744	-2.973651289975421	-3.1143588143060206
O	0.5192929260685734	-3.4137976490067166	-3.3712359879001457
H	-0.2943516009537784	-2.9128148412891326	-3.1067733931120993
N	-0.38288295031555175	-1.515904461285254	-1.9818286161192065
H	1.1709532056691403	-0.5656179128334813	-3.044217119981157
H	-0.46147328184718467	-2.0040226574271114	-1.0827025480416637
H	-0.7408114116220826	-0.5770925438845702	-1.7672773117584324
